7
Lattice="50.0 0.0 0.0 0.0 50.0 0.0 0.0 0.0 50.0" Properties=species:S:1:pos:R:3:forces:R:3 energy=-6220.17266169723 label=C charge=-1 pbc="T T T"
C        1.23616947      -0.55806272      -0.15377871       1.80938348       3.25017948       2.66582150
C       -0.10999420       0.06141430       0.00389190      -2.46612692       0.21372249       0.14197693
O       -0.09383227       1.22082897       0.54744542      -0.93202276      -3.86614257      -1.95144741
O       -1.06522364      -0.70530570      -0.41388144       2.76312763       3.40655983       1.60114295
H        1.40064568      -1.45298203       0.26466035      -0.89732099      -3.54740334       1.96136167
H        1.99227537      -0.00046434       0.48077972      -0.83409546      -0.03787399      -1.67000209
H        1.58450361      -0.81105002      -1.07936823       0.55705502       0.58095811      -2.74885355
13
Lattice="50.0 0.0 0.0 0.0 50.0 0.0 0.0 0.0 50.0" Properties=species:S:1:pos:R:3:forces:R:3 energy=-6668.13444011321 label=C charge=1 pbc="T T T"
C        1.32232491      -1.19529777      -0.75603234      -3.14917387       0.70514919      -0.99579379
C       -0.28287893       0.36629239       0.14696294      -0.92538055      -3.99206337       0.66506963
N       -0.40971164       1.33855808       1.06910776      -4.35211278       1.55675782      -4.48641609
N        0.71070793      -0.55111974       0.28737801       0.23425933       6.01670560       6.30855988
N       -1.32843119      -0.06453740      -0.68410752       3.07544972       2.90325520      -1.57377570
H       -1.08645481       2.12952301       0.73017138       1.86122264      -2.69880284       1.51859868
H        0.30990162       1.75255310       1.56338859       1.69530739      -0.00453576       0.63540833
H        1.27348786      -0.18795366       1.13152506      -0.94243812      -1.84106943      -2.41942516
H       -0.87434410      -0.76265772      -1.51538222      -2.82056125       3.29659777       3.30431152
H       -1.92926026       0.81496983      -0.92994717       1.52951256      -3.38175391      -0.15340033
H        0.65134925      -0.77200832      -1.46454086       0.99138632      -1.21158233      -2.21808016
H        1.27968311      -2.20155626      -0.64620079      -0.45081916      -2.76655429      -0.08638027
H        2.26700154      -0.94002276      -0.95479738       3.25334776       1.41789636      -0.49867654
8
Lattice="8.0 0.0 0.0 0.0 8.0 0.0 0.0 0.0 8.0" Properties=species:S:1:pos:R:3:forces:R:3 energy=-2171.30212313776 label=A charge=0 pbc="T T T"
C       -0.57446957      -0.46811032       0.25974766       4.07995820      -0.36459795       1.73611725
C        0.57749882       0.47306381      -0.26394493      -9.61312868       2.33615500       2.06272575
H       -1.03608059      -0.95382110      -0.57241785      -0.24016999      -0.37934434       0.24715392
H       -0.06274729      -1.17743353       1.01726434      -1.59516257       0.91588624      -1.58998981
H       -1.20636331       0.16331493       0.80073873      -1.34821313       0.27038433       0.49385005
H        0.63619731       1.37215532       0.32289335      -0.13633140       0.19484356      -0.60273751
H        1.37609316       0.04278780      -0.28691494       9.05932005      -4.82654137       0.16864783
H        0.25680509       0.49397237      -1.23155041      -0.20627248       1.85321452      -2.51576748
7
Lattice="6.0 0.0 0.0 0.0 6.0 0.0 0.0 0.0 6.0" Properties=species:S:1:pos:R:3:forces:R:3 energy=-6222.81956274277 label=C charge=-1 pbc="T T T"
C        0.51629286       1.22557066      -0.23635932       0.22561882      -0.57281198       6.58475481
C       -0.01272877      -0.16646737       0.08285119      -1.88859364       4.49398233      -2.50108576
O        0.16928008      -0.79092759      -0.92256161       0.20106762      -4.10126152      -0.90638273
O       -0.66424464      -0.26959118       1.07496479      -0.80240572      -2.08302834       2.23901342
H        0.22680387       1.89838568       0.61438705       0.82108862      -0.45290234      -1.34719751
H        0.16593911       1.53460943      -1.11481346      -0.43940849       1.02099828      -3.24917799
H        1.46304050       0.77965390      -0.08936750       1.88263278       1.69502356      -0.81992424
11
Lattice="50.0 0.0 0.0 0.0 50.0 0.0 0.0 0.0 50.0" Properties=species:S:1:pos:R:3:forces:R:3 energy=-3687.24788864742 label=C charge=1 pbc="T T T"
C       -0.37388238       0.35517902       0.48373943      -0.31167696      -2.08822911      -2.27192458
C       -0.78584765      -1.09720086      -0.19865201      -0.10033459       4.46047982       2.99667193
N        0.99912327       0.65949043      -0.21324250      -1.46432807      -3.83226805      -0.24031023
H       -1.05236059       1.14506725       0.21034841       0.22459713       0.07277639       0.04429232
H       -0.27262571       0.28475565       1.55986973       0.57714738       0.19706216      -0.44619067
H       -1.86912732      -1.35366402       0.14429381       2.83544308      -0.01085414      -0.66865536
H        0.11821518      -1.57285240       0.29781262      -2.03646442      -0.95423526      -1.85719429
H        1.47873432      -0.29775182      -0.49355802       0.00038008       2.47000180       3.23428806
H        0.95405115       0.72041512      -1.21184814      -1.28372654       2.36992771      -0.32248039
H        1.38468335       1.45209408       0.28662938       1.23847504      -0.83517242      -0.80563399
H       -0.80625517      -0.70054198      -1.22737467       0.32048787      -1.84948890       0.33713719
8
Lattice="23.0 0.0 0.0 0.0 23.0 0.0 0.0 0.0 23.0" Properties=species:S:1:pos:R:3:forces:R:3 energy=-2171.61799669311 label=A charge=0 pbc="T T T"
C        0.16843526       0.40202700      -0.62737918      -5.01138132      -1.61875059      -1.01974753
C       -0.15509739      -0.44411000       0.62120141       2.36741627      -1.24432159      -2.28144780
H        0.19945885       0.18618651      -1.72085566      -0.78934072      -1.26177367       1.37742142
H       -0.55702648       1.20151209      -0.53392598      -0.09867158      -0.00077521      -0.37893077
H        0.99451254       0.88996279      -0.56690119       5.48896502       2.60925602       1.16407633
H       -1.15440929      -0.48663160       0.76698415      -3.04218598      -0.40276165      -0.05282861
H        0.21846427      -1.49072080       0.74902013       0.08019255       1.52441715      -0.35982334
H        0.14007045       0.20113824       1.37929088       1.00500577       0.39470954       1.55128031
13
Lattice="8.0 0.0 0.0 0.0 8.0 0.0 0.0 0.0 8.0" Properties=species:S:1:pos:R:3:forces:R:3 energy=-6670.46701348525 label=C charge=1 pbc="T T T"
C        0.75125091      -1.84559033      -0.04295413       2.16718649       1.65405997       2.64126212
C       -0.17375903       0.44783767       0.00471803       1.91905305       1.13273918       1.02531360
N       -1.38118190       1.16775191      -0.03532412       0.99591578      -3.06951032       0.33534373
N       -0.17768266      -0.80923892       0.33313280      -0.84992483       1.33810522      -1.54279132
N        0.98798834       1.09420255      -0.20008071      -4.75363560      -0.37225620       0.65166754
H       -2.01293928       0.52177342       0.47706714       0.36324796       1.61689923      -0.48884104
H       -1.56237922       0.86727767      -0.98060016      -1.04122464       1.09363038      -0.54472334
H       -1.07872249      -1.12241835       0.61609992       0.13332366      -0.39619078       0.00890499
H        1.73853002       0.57878677      -0.38470801       3.23472849      -2.54291029      -0.33223863
H        1.01537774       1.88271371      -0.75423137      -0.65380115       1.80493890      -0.55437619
H        1.83078079      -1.39678231      -0.15085033      -2.78909494      -1.39858326      -0.94195239
H        0.26571525      -2.59482785      -0.64169434       0.68707843       0.51053473      -0.91828153
H        0.85523282      -2.26805048       0.91651443       0.58714730      -1.37145675       0.66071246
13
Lattice="14.0 0.0 0.0 0.0 14.0 0.0 0.0 0.0 14.0" Properties=species:S:1:pos:R:3:forces:R:3 energy=-6669.52622107297 label=C charge=1 pbc="T T T"
C        0.50216607      -1.76103539      -0.98177657      -2.25273629       3.54476524      -2.87730769
C       -0.10534932       0.53141107       0.20454893      -0.75796989      -6.98709148      -1.71159713
N       -1.21789410       1.15831287       0.65401752       5.25464069       0.91465488      -1.04800280
N       -0.33390288      -0.50989889      -0.71388285       0.24423990       2.75271381       4.01319611
N        1.16877906       0.59926721       0.72788508      -2.08019994       0.12561680      -2.08355262
H       -0.85542504       1.93135630       1.23022420      -2.28527664      -1.16113351       0.09716516
H       -1.90042247       0.46110324       0.79953883      -1.14858742       0.84282635       0.75227862
H       -1.33955652      -0.54551861      -0.87056998       1.14735773      -0.49965974      -0.56336499
H        1.48381852       0.06882440       1.50348791      -0.47007490      -0.47449817       0.04310922
H        1.41644560       1.51855618       0.76016467       1.35859730       2.35165282       0.63487758
H        0.71818250      -2.32872275      -0.16011163       0.99204054      -0.62072641       1.94538969
H        1.25434444      -1.48104488      -1.71016490       0.41732473      -0.16384059       1.03915149
H       -0.18337281      -2.31032028      -1.57406853      -0.41935581      -0.62527999      -0.24134263
8
Lattice="30.0 0.0 0.0 0.0 30.0 0.0 0.0 0.0 30.0" Properties=species:S:1:pos:R:3:forces:R:3 energy=-2170.87237888391 label=A charge=0 pbc="T T T"
C        0.73676274       0.14305970      -0.29836471      -2.59967000       1.66007169      -0.34936913
C       -0.67797210      -0.16631557       0.28668749      -4.04169869       0.67468664      -0.19599900
H        0.67872881       1.31796105      -0.66312699       0.55796456      -3.65199100       1.03263852
H        1.47923109       0.02971813       0.54912602      -0.75673605      -0.09882262      -1.95156324
H        0.75680370      -0.54423384      -1.20469400       1.12848343       1.30851303       1.58550686
H       -1.69462709       0.37667444      -0.36794065       3.66627317      -2.43146978       1.44384453
H       -0.97179867      -1.26009199       0.62657166       1.06427362       2.34058932      -1.65716097
H       -0.94886805       0.35708158       1.19920592       0.98110995       0.19842270       0.09210243
13
Lattice="14.0 0.0 0.0 0.0 14.0 0.0 0.0 0.0 14.0" Properties=species:S:1:pos:R:3:forces:R:3 energy=-6668.81174688341 label=C charge=1 pbc="T T T"
C       -0.54459481       1.31968067       1.31212423       1.74699270       4.24985693       2.53409303
C        0.02953205      -0.32101571      -0.38845590       0.17151966      -0.40767674       3.13243515
N       -0.11172565      -1.54469186      -0.78889864       1.31309669      -0.84327872      -1.44981914
N       -0.31589371       0.03123815       0.80121081      -7.26699507      -1.56134022       4.24570808
N        0.85331059       0.44100812      -0.96836793       2.09844191       8.42259537      -0.32825471
H        0.72201162      -1.57392430      -1.34947025      -0.68631642      -2.08123890      -0.48025024
H       -0.17690724      -2.27466076      -0.10174049      -0.23524677       0.41536788      -0.34988258
H       -1.03608734      -0.50499883       1.41571506       2.48588160       0.04157974      -2.89249404
H        0.99085421       1.52364220      -0.71729250      -1.19195358      -4.10782760       0.31420101
H        1.29055930       0.49114554      -1.82788191       0.07983076      -1.87247262      -1.93433914
H       -0.94286389       2.21442158       0.82748921       0.65128557      -1.12147125      -1.52143372
H        0.39925258       1.48860565       1.74374847       1.48690483       1.77784483      -0.24859095
H       -1.02483336       1.63852748       2.28849292      -0.65344189      -2.91193871      -1.02137274
